<?xml version="1.0" encoding="UTF-8"?>

<!-- generated on 2022-11-11 14:06:17 by Eclipse SUMO GUI Version 1.14.1
<configuration xmlns:xsi="http://www.w3.org/2001/XMLSchema-instance" xsi:noNamespaceSchemaLocation="http://sumo.dlr.de/xsd/sumoConfiguration.xsd">

    <input>
        <net-file value="sumo/light.net.xml"/>
        <route-files value="sumo/light.rou.xml"/>
    </input>

    <output>
        <tripinfo-output value="sumo/tripinfo.xml"/>
    </output>

    <time>
        <begin value="0"/>
        <end value="2000"/>
        <step-length value="0.1"/>
    </time>

    <traci_server>
        <remote-port value="57212"/>
    </traci_server>

</configuration>
-->

<tripinfos xmlns:xsi="http://www.w3.org/2001/XMLSchema-instance" xsi:noNamespaceSchemaLocation="http://sumo.dlr.de/xsd/tripinfo_file.xsd">
    <tripinfo id="0" depart="0.00" departLane="c_s_0" departPos="5.10" departSpeed="0.00" departDelay="0.00" arrival="9.40" arrivalLane="c_n_2" arrivalPos="26.40" arrivalSpeed="14.69" duration="9.40" routeLength="84.90" waitingTime="0.00" waitingCount="0" stopTime="0.00" timeLoss="3.57" rerouteNo="0" devices="tripinfo_0" vType="DEFAULT_VEHTYPE" speedFactor="1.06" vaporized=""/>
    <tripinfo id="2" depart="2.00" departLane="-c_n_0" departPos="5.10" departSpeed="0.00" departDelay="0.00" arrival="11.80" arrivalLane="-c_s_0" arrivalPos="36.40" arrivalSpeed="13.03" duration="9.80" routeLength="84.90" waitingTime="0.00" waitingCount="0" stopTime="0.00" timeLoss="3.23" rerouteNo="0" devices="tripinfo_2" vType="DEFAULT_VEHTYPE" speedFactor="0.94" vaporized=""/>
    <tripinfo id="5" depart="5.00" departLane="c_s_0" departPos="5.10" departSpeed="0.00" departDelay="0.00" arrival="14.30" arrivalLane="c_n_2" arrivalPos="26.40" arrivalSpeed="15.00" duration="9.30" routeLength="84.90" waitingTime="0.00" waitingCount="0" stopTime="0.00" timeLoss="3.65" rerouteNo="0" devices="tripinfo_5" vType="DEFAULT_VEHTYPE" speedFactor="1.08" vaporized=""/>
    <tripinfo id="7" depart="7.00" departLane="w_c_0" departPos="5.10" departSpeed="0.00" departDelay="0.00" arrival="15.10" arrivalLane="-c_s_0" arrivalPos="36.40" arrivalSpeed="11.49" duration="8.10" routeLength="51.73" waitingTime="0.00" waitingCount="0" stopTime="0.00" timeLoss="2.70" rerouteNo="0" devices="tripinfo_7" vType="DEFAULT_VEHTYPE" speedFactor="0.83" vaporized=""/>
    <tripinfo id="10" depart="10.00" departLane="-c_n_0" departPos="5.10" departSpeed="0.00" departDelay="0.00" arrival="17.40" arrivalLane="-w_c_0" arrivalPos="11.40" arrivalSpeed="9.45" duration="7.40" routeLength="41.73" waitingTime="0.00" waitingCount="0" stopTime="0.00" timeLoss="3.81" rerouteNo="0" devices="tripinfo_10" vType="DEFAULT_VEHTYPE" speedFactor="1.05" vaporized=""/>
    <tripinfo id="4" depart="4.60" departLane="-c_n_0" departPos="5.10" departSpeed="0.00" departDelay="0.60" arrival="17.50" arrivalLane="c_e_2" arrivalPos="11.40" arrivalSpeed="10.58" duration="12.90" routeLength="57.21" waitingTime="1.50" waitingCount="1" stopTime="0.00" timeLoss="8.24" rerouteNo="0" devices="tripinfo_4" vType="DEFAULT_VEHTYPE" speedFactor="1.01" vaporized=""/>
    <tripinfo id="11" depart="12.70" departLane="-c_n_0" departPos="5.10" departSpeed="0.00" departDelay="1.70" arrival="22.50" arrivalLane="-c_s_0" arrivalPos="36.40" arrivalSpeed="12.19" duration="9.80" routeLength="84.90" waitingTime="0.00" waitingCount="0" stopTime="0.00" timeLoss="2.89" rerouteNo="0" devices="tripinfo_11" vType="DEFAULT_VEHTYPE" speedFactor="0.89" vaporized=""/>
    <tripinfo id="12" depart="12.00" departLane="-c_e_0" departPos="5.10" departSpeed="0.00" departDelay="0.00" arrival="23.20" arrivalLane="-c_s_2" arrivalPos="36.40" arrivalSpeed="12.93" duration="11.20" routeLength="67.21" waitingTime="0.00" waitingCount="0" stopTime="0.00" timeLoss="5.34" rerouteNo="0" devices="tripinfo_12" vType="DEFAULT_VEHTYPE" speedFactor="0.94" vaporized=""/>
    <tripinfo id="13" depart="13.00" departLane="-c_e_0" departPos="5.10" departSpeed="0.00" departDelay="0.00" arrival="24.70" arrivalLane="-c_s_2" arrivalPos="36.40" arrivalSpeed="11.87" duration="11.70" routeLength="67.21" waitingTime="0.70" waitingCount="1" stopTime="0.00" timeLoss="5.36" rerouteNo="0" devices="tripinfo_13" vType="DEFAULT_VEHTYPE" speedFactor="0.86" vaporized=""/>
    <tripinfo id="15" depart="15.30" departLane="-c_n_0" departPos="5.10" departSpeed="0.00" departDelay="0.30" arrival="24.80" arrivalLane="-c_s_0" arrivalPos="36.40" arrivalSpeed="14.14" duration="9.50" routeLength="84.90" waitingTime="0.00" waitingCount="0" stopTime="0.00" timeLoss="3.46" rerouteNo="0" devices="tripinfo_15" vType="DEFAULT_VEHTYPE" speedFactor="1.03" vaporized=""/>
    <tripinfo id="16" depart="16.60" departLane="c_s_0" departPos="5.10" departSpeed="0.00" departDelay="0.60" arrival="25.80" arrivalLane="c_n_2" arrivalPos="26.40" arrivalSpeed="14.51" duration="9.20" routeLength="84.90" waitingTime="0.00" waitingCount="0" stopTime="0.00" timeLoss="3.34" rerouteNo="0" devices="tripinfo_16" vType="DEFAULT_VEHTYPE" speedFactor="1.05" vaporized=""/>
    <tripinfo id="17" depart="17.00" departLane="c_s_0" departPos="5.10" departSpeed="0.00" departDelay="0.00" arrival="28.00" arrivalLane="c_n_2" arrivalPos="26.40" arrivalSpeed="15.48" duration="11.00" routeLength="84.90" waitingTime="0.90" waitingCount="2" stopTime="0.00" timeLoss="5.52" rerouteNo="0" devices="tripinfo_17" vType="DEFAULT_VEHTYPE" speedFactor="1.12" vaporized=""/>
    <tripinfo id="6" depart="6.00" departLane="c_s_0" departPos="5.10" departSpeed="0.00" departDelay="0.00" arrival="28.50" arrivalLane="c_e_0" arrivalPos="11.40" arrivalSpeed="9.06" duration="22.50" routeLength="51.73" waitingTime="11.50" waitingCount="1" stopTime="0.00" timeLoss="18.13" rerouteNo="0" devices="tripinfo_6" vType="DEFAULT_VEHTYPE" speedFactor="1.03" vaporized=""/>
    <tripinfo id="19" depart="19.00" departLane="-c_n_0" departPos="5.10" departSpeed="0.00" departDelay="0.00" arrival="28.50" arrivalLane="-c_s_0" arrivalPos="36.40" arrivalSpeed="13.76" duration="9.50" routeLength="84.90" waitingTime="0.00" waitingCount="0" stopTime="0.00" timeLoss="3.28" rerouteNo="0" devices="tripinfo_19" vType="DEFAULT_VEHTYPE" speedFactor="0.99" vaporized=""/>
    <tripinfo id="14" depart="14.00" departLane="c_s_0" departPos="5.10" departSpeed="0.00" departDelay="0.00" arrival="30.10" arrivalLane="c_e_0" arrivalPos="11.40" arrivalSpeed="9.61" duration="16.10" routeLength="51.73" waitingTime="1.60" waitingCount="1" stopTime="0.00" timeLoss="11.98" rerouteNo="0" devices="tripinfo_14" vType="DEFAULT_VEHTYPE" speedFactor="1.09" vaporized=""/>
    <tripinfo id="22" depart="22.00" departLane="w_c_0" departPos="5.10" departSpeed="0.00" departDelay="0.00" arrival="32.40" arrivalLane="-c_s_0" arrivalPos="36.40" arrivalSpeed="13.00" duration="10.40" routeLength="51.73" waitingTime="0.90" waitingCount="1" stopTime="0.00" timeLoss="5.65" rerouteNo="0" devices="tripinfo_22" vType="DEFAULT_VEHTYPE" speedFactor="0.94" vaporized=""/>
    <tripinfo id="21" depart="21.00" departLane="c_s_0" departPos="5.10" departSpeed="0.00" departDelay="0.00" arrival="32.50" arrivalLane="c_e_0" arrivalPos="11.40" arrivalSpeed="8.55" duration="11.50" routeLength="51.73" waitingTime="0.00" waitingCount="0" stopTime="0.00" timeLoss="6.45" rerouteNo="0" devices="tripinfo_21" vType="DEFAULT_VEHTYPE" speedFactor="0.88" vaporized=""/>
    <tripinfo id="26" depart="26.00" departLane="-c_n_0" departPos="5.10" departSpeed="0.00" departDelay="0.00" arrival="35.40" arrivalLane="-c_s_1" arrivalPos="36.40" arrivalSpeed="14.06" duration="9.40" routeLength="84.90" waitingTime="0.00" waitingCount="0" stopTime="0.00" timeLoss="3.35" rerouteNo="0" devices="tripinfo_26" vType="DEFAULT_VEHTYPE" speedFactor="1.02" vaporized=""/>
    <tripinfo id="28" depart="28.00" departLane="c_s_0" departPos="5.10" departSpeed="0.00" departDelay="0.00" arrival="36.50" arrivalLane="c_e_0" arrivalPos="11.40" arrivalSpeed="9.13" duration="8.50" routeLength="51.73" waitingTime="0.00" waitingCount="0" stopTime="0.00" timeLoss="4.07" rerouteNo="0" devices="tripinfo_28" vType="DEFAULT_VEHTYPE" speedFactor="1.01" vaporized=""/>
    <tripinfo id="23" depart="26.70" departLane="w_c_0" departPos="5.10" departSpeed="0.00" departDelay="3.70" arrival="37.10" arrivalLane="-c_s_0" arrivalPos="36.40" arrivalSpeed="12.93" duration="10.40" routeLength="51.73" waitingTime="0.90" waitingCount="1" stopTime="0.00" timeLoss="5.65" rerouteNo="0" devices="tripinfo_23" vType="DEFAULT_VEHTYPE" speedFactor="0.94" vaporized=""/>
    <tripinfo id="20" depart="20.00" departLane="c_s_0" departPos="5.10" departSpeed="0.00" departDelay="0.00" arrival="37.50" arrivalLane="-w_c_2" arrivalPos="11.40" arrivalSpeed="10.29" duration="17.50" routeLength="67.21" waitingTime="4.70" waitingCount="2" stopTime="0.00" timeLoss="11.63" rerouteNo="0" devices="tripinfo_20" vType="DEFAULT_VEHTYPE" speedFactor="0.93" vaporized=""/>
    <tripinfo id="25" depart="31.60" departLane="w_c_0" departPos="5.10" departSpeed="0.00" departDelay="6.60" arrival="38.70" arrivalLane="-c_s_0" arrivalPos="36.40" arrivalSpeed="13.86" duration="7.10" routeLength="51.73" waitingTime="0.00" waitingCount="0" stopTime="0.00" timeLoss="3.17" rerouteNo="0" devices="tripinfo_25" vType="DEFAULT_VEHTYPE" speedFactor="1.16" vaporized=""/>
    <tripinfo id="30" depart="34.10" departLane="w_c_0" departPos="5.10" departSpeed="0.00" departDelay="4.10" arrival="40.80" arrivalLane="c_e_2" arrivalPos="11.40" arrivalSpeed="12.93" duration="6.70" routeLength="44.90" waitingTime="0.00" waitingCount="0" stopTime="0.00" timeLoss="3.35" rerouteNo="0" devices="tripinfo_30" vType="DEFAULT_VEHTYPE" speedFactor="0.97" vaporized=""/>
    <tripinfo id="36" depart="36.00" departLane="-c_e_0" departPos="5.10" departSpeed="0.00" departDelay="0.00" arrival="42.60" arrivalLane="-w_c_0" arrivalPos="11.40" arrivalSpeed="12.65" duration="6.60" routeLength="44.90" waitingTime="0.00" waitingCount="0" stopTime="0.00" timeLoss="2.99" rerouteNo="0" devices="tripinfo_36" vType="DEFAULT_VEHTYPE" speedFactor="0.92" vaporized=""/>
    <tripinfo id="38" depart="38.00" departLane="-c_n_0" departPos="5.10" departSpeed="0.00" departDelay="0.00" arrival="47.00" arrivalLane="-c_s_1" arrivalPos="36.40" arrivalSpeed="15.67" duration="9.00" routeLength="84.90" waitingTime="0.00" waitingCount="0" stopTime="0.00" timeLoss="3.60" rerouteNo="0" devices="tripinfo_38" vType="DEFAULT_VEHTYPE" speedFactor="1.13" vaporized=""/>
    <tripinfo id="39" depart="39.00" departLane="-c_n_0" departPos="5.10" departSpeed="0.00" departDelay="0.00" arrival="48.50" arrivalLane="c_e_2" arrivalPos="11.40" arrivalSpeed="12.10" duration="9.50" routeLength="57.21" waitingTime="1.00" waitingCount="1" stopTime="0.00" timeLoss="4.39" rerouteNo="0" devices="tripinfo_39" vType="DEFAULT_VEHTYPE" speedFactor="0.93" vaporized=""/>
    <tripinfo id="40" depart="40.60" departLane="-c_n_0" departPos="5.10" departSpeed="0.00" departDelay="0.60" arrival="49.90" arrivalLane="-c_s_1" arrivalPos="36.40" arrivalSpeed="16.27" duration="9.30" routeLength="84.90" waitingTime="0.00" waitingCount="0" stopTime="0.00" timeLoss="4.09" rerouteNo="0" devices="tripinfo_40" vType="DEFAULT_VEHTYPE" speedFactor="1.18" vaporized=""/>
    <tripinfo id="43" depart="43.00" departLane="-c_n_0" departPos="5.10" departSpeed="0.00" departDelay="0.00" arrival="50.00" arrivalLane="-w_c_0" arrivalPos="11.40" arrivalSpeed="9.92" duration="7.00" routeLength="41.73" waitingTime="0.00" waitingCount="0" stopTime="0.00" timeLoss="3.73" rerouteNo="0" devices="tripinfo_43" vType="DEFAULT_VEHTYPE" speedFactor="1.15" vaporized=""/>
    <tripinfo id="44" depart="44.00" departLane="w_c_0" departPos="5.10" departSpeed="0.00" departDelay="0.00" arrival="51.30" arrivalLane="c_e_2" arrivalPos="11.40" arrivalSpeed="12.34" duration="7.30" routeLength="44.90" waitingTime="0.00" waitingCount="0" stopTime="0.00" timeLoss="4.08" rerouteNo="0" devices="tripinfo_44" vType="DEFAULT_VEHTYPE" speedFactor="1.01" vaporized=""/>
    <tripinfo id="46" depart="46.00" departLane="w_c_0" departPos="5.10" departSpeed="0.00" departDelay="0.00" arrival="53.10" arrivalLane="c_e_2" arrivalPos="11.40" arrivalSpeed="12.92" duration="7.10" routeLength="44.90" waitingTime="0.00" waitingCount="0" stopTime="0.00" timeLoss="4.33" rerouteNo="0" devices="tripinfo_46" vType="DEFAULT_VEHTYPE" speedFactor="1.17" vaporized=""/>
    <tripinfo id="31" depart="31.00" departLane="c_s_0" departPos="5.10" departSpeed="0.00" departDelay="0.00" arrival="56.30" arrivalLane="-w_c_2" arrivalPos="11.40" arrivalSpeed="10.57" duration="25.30" routeLength="67.21" waitingTime="12.80" waitingCount="1" stopTime="0.00" timeLoss="19.18" rerouteNo="0" devices="tripinfo_31" vType="DEFAULT_VEHTYPE" speedFactor="0.89" vaporized=""/>
    <tripinfo id="33" depart="33.00" departLane="c_s_0" departPos="5.10" departSpeed="0.00" departDelay="0.00" arrival="58.40" arrivalLane="-w_c_2" arrivalPos="11.40" arrivalSpeed="10.91" duration="25.40" routeLength="67.21" waitingTime="8.60" waitingCount="1" stopTime="0.00" timeLoss="18.77" rerouteNo="0" devices="tripinfo_33" vType="DEFAULT_VEHTYPE" speedFactor="0.83" vaporized=""/>
    <tripinfo id="49" depart="49.00" departLane="-c_e_0" departPos="5.10" departSpeed="0.00" departDelay="0.00" arrival="61.30" arrivalLane="-c_s_2" arrivalPos="36.40" arrivalSpeed="13.73" duration="12.30" routeLength="67.21" waitingTime="0.60" waitingCount="1" stopTime="0.00" timeLoss="6.75" rerouteNo="0" devices="tripinfo_49" vType="DEFAULT_VEHTYPE" speedFactor="0.99" vaporized=""/>
    <tripinfo id="34" depart="34.00" departLane="c_s_0" departPos="5.10" departSpeed="0.00" departDelay="0.00" arrival="63.20" arrivalLane="c_n_2" arrivalPos="26.40" arrivalSpeed="12.04" duration="29.20" routeLength="84.90" waitingTime="7.70" waitingCount="2" stopTime="0.00" timeLoss="22.19" rerouteNo="0" devices="tripinfo_34" vType="DEFAULT_VEHTYPE" speedFactor="0.87" vaporized=""/>
    <tripinfo id="37" depart="37.00" departLane="c_s_0" departPos="5.10" departSpeed="0.00" departDelay="0.00" arrival="64.60" arrivalLane="c_n_2" arrivalPos="26.40" arrivalSpeed="13.11" duration="27.60" routeLength="84.90" waitingTime="5.60" waitingCount="2" stopTime="0.00" timeLoss="21.10" rerouteNo="0" devices="tripinfo_37" vType="DEFAULT_VEHTYPE" speedFactor="0.95" vaporized=""/>
</tripinfos>
